@params
	taper_cutoff = 10000.000000
	x_bound = 0.000000 16.704000
	y_bound = 0.000000 16.704000
	z_bound = 0.000000 16.704000
	periodic = true
	ewald_log_precision = -6.000000
	ewald_re_cutoff = 3.540000
	ewald_max_re = 4.500000
	ewald_autoset = true
	ewald_nuc_r = 1.000000e-10
	min = conjugate_gradient
	min_freeze = none
	thermostat = none
	start_temperature = 0.000000
	end_temperature = 0.000000
	nose_hoover_coupling = 1.000000
	andersen_coupling = 0.100000
	dt = 0.005000
	adaptive_step_size = false
	adaptive_energy = 0.000100
	adaptive_num_tries = 5
	print_every = 50
	num_steps = 10000
	calc = single_pt
	output_position = all
	output_velocity = all
	output_energy_forces = end
	output_restart = all
	electron_mass = 1.000000
	rand_seed = 10000
	e_field = 0.000000 0.000000 0.000000
	e_field_freq = 0.000000
	e_field_packet_duration = 0.000000
	size_limit = true
	size_limit_stiffness = 1.000000
@nuclei
4.176000 4.176000 4.176000 3.000000
8.352000 8.352000 4.176000 3.000000
4.176000 8.352000 8.352000 3.000000
8.352000 4.176000 8.352000 3.000000
4.176000 4.176000 12.528000 3.000000
8.352000 8.352000 12.528000 3.000000
4.176000 8.352000 16.704000 3.000000
8.352000 4.176000 16.704000 3.000000
4.176000 12.528000 4.176000 3.000000
8.352000 16.704000 4.176000 3.000000
4.176000 16.704000 8.352000 3.000000
8.352000 12.528000 8.352000 3.000000
4.176000 12.528000 12.528000 3.000000
8.352000 16.704000 12.528000 3.000000
4.176000 16.704000 16.704000 3.000000
8.352000 12.528000 16.704000 3.000000
12.528000 4.176000 4.176000 3.000000
16.704000 8.352000 4.176000 3.000000
12.528000 8.352000 8.352000 3.000000
16.704000 4.176000 8.352000 3.000000
12.528000 4.176000 12.528000 3.000000
16.704000 8.352000 12.528000 3.000000
12.528000 8.352000 16.704000 3.000000
16.704000 4.176000 16.704000 3.000000
12.528000 12.528000 4.176000 3.000000
16.704000 16.704000 4.176000 3.000000
12.528000 16.704000 8.352000 3.000000
16.704000 12.528000 8.352000 3.000000
12.528000 12.528000 12.528000 3.000000
16.704000 16.704000 12.528000 3.000000
12.528000 16.704000 16.704000 3.000000
16.704000 12.528000 16.704000 3.000000
@electrons
4.175890 4.175770 4.175820 1 0.708510
4.177280 4.174900 4.175870 -1 0.708440
8.350690 8.353070 4.175900 1 0.708500
8.352120 8.352210 4.175790 -1 0.708450
4.175910 8.351890 8.352170 1 0.707880
4.175210 8.352210 8.352040 -1 0.708400
8.352730 4.175750 8.352110 1 0.708480
8.352030 4.176120 8.352220 -1 0.707860
4.176130 4.175680 12.528100 1 0.708180
4.176240 4.174330 12.528160 -1 0.709280
8.351770 8.353670 12.528110 1 0.709310
8.351890 8.352340 12.528050 -1 0.708080
4.176800 8.353470 16.703700 1 0.708980
4.175640 8.352570 16.703690 -1 0.708200
8.352370 4.175410 16.703720 1 0.708270
8.351150 4.174590 16.703710 -1 0.708930
4.175990 12.526660 4.175240 1 0.708900
4.176240 12.527760 4.175910 -1 0.707960
8.351740 0.000240 4.175940 1 0.707890
8.352030 0.001330 4.175220 -1 0.708880
4.175610 16.703710 8.351960 1 0.708090
4.174000 16.703640 8.352040 -1 0.708920
8.354000 12.528330 8.352080 1 0.709020
8.352440 12.528250 8.351980 -1 0.708250
4.175950 12.526990 12.528290 1 0.708750
4.175140 12.527690 12.526860 -1 0.708390
8.352860 0.000290 12.526910 1 0.708260
8.352030 0.000990 12.528290 -1 0.708790
4.176240 0.000600 16.703770 1 0.708070
4.176230 0.001910 16.703960 -1 0.709330
8.351710 12.526080 16.703930 1 0.709350
8.351700 12.527360 16.703800 -1 0.708160
12.529140 4.176250 4.175920 1 0.708970
12.528150 4.176270 4.176030 -1 0.707770
16.703820 8.351760 4.176070 1 0.707900
16.702770 8.351680 4.175910 -1 0.709000
12.526830 8.352010 8.352580 1 0.708860
12.528030 8.352100 8.351750 -1 0.708240
16.703960 4.175850 8.351810 1 0.708180
0.001130 4.175960 8.352670 -1 0.709050
12.528060 4.175820 12.528060 1 0.707830
12.527680 4.175950 12.528080 -1 0.708190
0.000370 8.351980 12.528030 1 0.708310
16.703990 8.352260 12.528040 -1 0.707830
12.527450 8.351690 16.703180 1 0.709170
12.528220 8.351710 0.000430 -1 0.708280
16.703880 4.176270 0.000460 1 0.708310
0.000550 4.176240 16.703190 -1 0.709210
12.528200 12.528110 4.176030 1 0.708160
12.528080 12.527850 4.176180 -1 0.708300
16.704000 0.000160 4.176140 1 0.708210
16.703880 16.703860 4.175950 -1 0.708250
12.526710 0.000070 8.353450 1 0.708680
12.527410 0.000020 8.352030 -1 0.708340
0.000600 12.528000 8.351980 1 0.708340
0.001300 12.527960 8.353400 -1 0.708570
12.526440 12.527960 12.528040 1 0.709580
12.527470 12.527930 12.528160 -1 0.707970
0.000490 0.000020 12.528150 1 0.707990
0.001580 16.703990 12.528050 -1 0.709590
12.528020 0.000200 16.703860 1 0.708160
12.527850 16.703870 0.000650 -1 0.708420
0.000140 12.528080 0.000630 1 0.708430
0.000040 12.527750 16.703880 -1 0.708250
8.449730 4.305630 4.160620 1 3.144390
4.078280 8.222410 4.160620 -1 3.144420
4.199050 4.364430 8.363150 1 3.130340
8.328940 8.163580 8.363160 -1 3.130440
8.774300 4.481070 12.469010 1 3.202210
3.753690 8.046940 12.469020 -1 3.202260
4.299940 4.341400 16.634520 1 3.103110
8.228070 8.186590 16.634520 -1 3.103250
8.214240 12.749100 4.102360 -1 3.135640
4.313810 16.482880 4.102350 1 3.135460
4.609480 12.176830 8.390740 1 3.175450
7.918520 0.351160 8.390750 -1 3.175540
8.214120 12.584320 12.492750 -1 3.083840
4.313890 16.647670 12.492750 1 3.083610
3.892350 12.874380 16.429590 -1 3.142090
8.635680 16.357630 16.429550 1 3.142080
0.290200 3.852850 4.081720 -1 3.198790
12.237820 8.675150 4.081720 1 3.198760
12.721100 4.181070 8.075420 -1 3.160530
16.510900 8.346940 8.075460 1 3.160490
16.374950 4.239010 12.611870 1 3.125380
12.857060 8.288960 12.611870 -1 3.125520
12.451690 4.050590 0.316810 -1 3.186520
0.076320 8.477410 0.316780 1 3.186480
0.213060 12.753290 4.454820 -1 3.180830
12.314920 16.478710 4.454850 1 3.180730
12.618680 12.544100 8.363370 -1 3.126640
16.613340 16.687890 8.363320 1 3.126530
16.511250 12.424600 12.528500 1 3.152520
12.720760 0.103410 12.528480 -1 3.152600
12.721680 12.526820 0.090850 -1 3.154350
16.510320 0.001170 0.090900 1 3.154210
